/*--------------------------------*- C++ -*----------------------------------*\
| =========                 |                                                 |
| \\      /  F ield         | OpenFOAM: The Open Source CFD Toolbox           |
|  \\    /   O peration     | Version:  2.2.0                                 |
|   \\  /    A nd           | Web:      www.OpenFOAM.org                      |
|    \\/     M anipulation  |                                                 |
\*---------------------------------------------------------------------------*/
FoamFile
{
    version     2.0;
    format      ascii;
    class       pointVectorField;
    location    "0.01";
    object      pointDisplacement;
}
// * * * * * * * * * * * * * * * * * * * * * * * * * * * * * * * * * * * * * //

dimensions      [0 1 0 0 0 0 0];

internalField   uniform (0 0 0);

boundaryField
{
    wing
    {
        type            	twoDEldredgePitchDisplacement;
        axis            	(0 0 1);
        origin          	(0.14944506531 -0.01289078948 0.125);
		pitch_amplitude		1.0;
		k_parameter			1.0;
		a_parameter			0.5;
		chord				1.0;
		free_stream_velocity 1.0;
    }

    front
    {
        type            empty;
    }

    back
    {
        type            empty;
    }

     ".*"
     {
         type            fixedValue;
         value           uniform (0 0 0);
     }
}


// ************************************************************************* //
